created by fftool

2548 atoms
1300 bonds
600 angles
4 atom types
1 bond types
1 angle types
    -8.623826867     9.340482247 xlo xhi
    -9.317256617     9.643089677 ylo yhi
   -50    50 zlo zhi

Masses

   1   39.098  # K
   2    1.008  # Hw
   3   15.999  # Ow
   4   12.011
   
Bond Coeffs

   1   517.630258     1.000000  # Ow-Hw

Angle Coeffs

   1    37.950526   109.470000  # Hw-Ow-Hw

Atoms

      1       1    1   1.000000  4.279146e+00 -5.292396e+00  3.974056e+00  # K K+
      2       2    1   1.000000  2.345393e+00 -1.567963e+00  1.621475e+01  # K K+
      3       3    1   1.000000 -7.597874e+00 -1.749563e+00  2.042847e+01  # K K+
      4       4    1   1.000000 -5.375664e+00 -1.972351e+00  2.202064e+01  # K K+
      5       5    1   1.000000  4.974907e+00 -7.942060e-01  2.067354e+01  # K K+
      6       6    1   1.000000  1.362559e+00 -1.809303e+00 -2.774287e+01  # K K+
      7       7    1   1.000000  3.629299e+00  7.516497e+00  2.188402e+01  # K K+
      8       8    1   1.000000  6.514960e-01  2.614110e-01 -1.242712e+01  # K K+
      9       9    1   1.000000  8.929330e-01  7.506547e+00  1.991113e+01  # K K+
     10      10    1   1.000000  6.536286e+00  1.063044e+00  2.007922e+01  # K K+
     11      11    1   1.000000 -2.265584e+00 -2.806169e+00  2.284615e+01  # K K+
     12      12    1   1.000000  1.867701e+00 -2.142061e+00  1.859570e+01  # K K+
     13      13    1   1.000000 -4.175250e-01 -2.472103e+00  1.766061e+01  # K K+
     14      14    1   1.000000 -1.081089e+00 -4.669013e+00  1.864900e+01  # K K+
     15      15    1   1.000000 -2.250242e+00  4.790091e+00  2.773812e+01  # K K+
     16      16    1   1.000000 -7.745171e+00 -4.580099e+00  2.452910e+01  # K K+
     17      17    1   1.000000 -7.526017e+00 -3.155550e+00  2.248987e+01  # K K+
     18      18    1   1.000000 -5.637156e+00 -3.304299e+00  2.411842e+01  # K K+
     19      19    1   1.000000  1.958200e-02  6.082103e+00  2.839765e+00  # K K+
     20      20    1   1.000000 -4.304883e+00  7.552909e+00 -1.145701e+01  # K K+
     21      21    1   1.000000 -2.774937e+00  6.057648e+00 -6.933191e+00  # K K+
     22      22    1   1.000000 -5.205360e-01  4.514310e+00  2.595658e+01  # K K+
     23      23    1   1.000000 -7.048330e-01 -3.691646e+00  2.091906e+01  # K K+
     24      24    1   1.000000 -4.677640e-01 -5.425089e+00  1.634803e+01  # K K+
     25      25    1   1.000000  2.056340e-01  6.008952e+00 -1.770314e+00  # K K+
     26      26    1   1.000000 -1.897800e-01  1.910092e+00  1.554956e+01  # K K+
     27      27    1   1.000000 -6.278480e-01 -5.049223e+00  2.562065e+01  # K K+
     28      28    1   1.000000  7.654887e+00 -7.134129e+00 -2.504952e+01  # K K+
     29      29    1   1.000000  5.273761e+00  3.222107e+00 -8.359178e+00  # K K+
     30      30    1   1.000000  5.920933e+00  5.324557e+00 -2.684563e+01  # K K+
     31      31    1   1.000000  2.642957e+00 -2.284870e-01  1.999412e+01  # K K+
     32      32    1   1.000000  6.036657e+00 -3.196312e+00 -3.971829e+00  # K K+
     33      33    1   1.000000 -5.253380e-01 -5.127304e+00 -2.456234e+01  # K K+
     34      34    1   1.000000 -4.674106e+00  5.974740e-01  2.469989e+00  # K K+
     35      35    1   1.000000 -3.079622e+00  5.295218e+00  2.210203e+01  # K K+
     36      36    1   1.000000  4.436997e+00 -1.094448e+00 -2.556764e+01  # K K+
     37      37    1   1.000000  1.931862e+00  8.905010e-01  1.638719e+01  # K K+
     38      38    1   1.000000 -7.563286e+00 -4.927630e+00  2.072727e+01  # K K+
     39      39    1   1.000000 -5.312511e+00 -5.238298e+00  1.664683e+01  # K K+
     40      40    1   1.000000 -2.431590e+00  2.224287e+00 -2.352010e+01  # K K+
     41      41    1   1.000000  3.415792e+00 -5.314499e+00  2.815168e+01  # K K+
     42      42    1   1.000000  1.039648e+00 -1.903457e+00  2.093395e+01  # K K+
     43      43    1   1.000000 -4.489969e+00  3.373988e+00  2.285554e+01  # K K+
     44      44    1   1.000000  5.892677e+00  9.201700e-01 -2.582381e+01  # K K+
     45      45    1   1.000000  2.700691e+00 -2.967137e+00  2.768799e+01  # K K+
     46      46    1   1.000000 -7.502928e+00 -7.501799e+00  2.115241e+01  # K K+
     47      47    1   1.000000  4.540044e+00  3.006380e+00 -1.547320e+01  # K K+
     48      48    1   1.000000 -4.134160e+00  1.442953e+00  2.440180e+01  # K K+
     49      49    1   1.000000 -5.567387e+00 -5.485960e+00  2.533387e+01  # K K+
     50      50    1   1.000000 -7.558579e+00  7.083821e+00 -7.985567e+00  # K K+
     51      51    1   1.000000  3.036699e+00  4.365887e+00 -1.692929e+01  # K K+
     52      52    1   1.000000  3.378266e+00 -2.977188e+00  2.040311e+01  # K K+
     53      53    1   1.000000  7.537983e+00  2.908108e+00  2.143275e+01  # K K+
     54      54    1   1.000000  7.121297e+00  1.340748e+00 -3.004726e+01  # K K+
     55      55    1   1.000000 -5.449664e+00 -3.696126e+00  2.021381e+01  # K K+
     56      56    1   1.000000  5.227609e+00  7.536255e+00  2.380266e+01  # K K+
     57      57    1   1.000000  3.651770e+00 -3.387614e+00 -2.616858e+01  # K K+
     58      58    1   1.000000 -5.440810e+00  7.530864e+00 -9.232970e+00  # K K+
     59      59    1   1.000000 -5.005507e+00  2.880419e+00 -2.331630e+01  # K K+
     60      60    1   1.000000 -1.102891e+00  5.367807e+00  1.123894e+01  # K K+
     61      61    1   1.000000 -2.520250e+00  3.681553e+00 -1.899573e+01  # K K+
     62      62    1   1.000000  8.909500e-01 -5.381469e+00  2.000556e+01  # K K+
     63      63    1   1.000000  5.669879e+00  7.504261e+00  2.044309e+01  # K K+
     64      64    1   1.000000 -6.286830e+00 -5.590032e+00  2.277030e+01  # K K+
     65      65    1   1.000000  3.074842e+00 -1.269670e+00  2.223705e+01  # K K+
     66      66    1   1.000000 -2.763733e+00 -4.528370e-01  2.352460e+01  # K K+
     67      67    1   1.000000  5.474551e+00  7.123420e-01 -8.554216e+00  # K K+
     68      68    1   1.000000  3.188814e+00  1.915839e+00  2.571547e+01  # K K+
     69      69    1   1.000000 -3.564146e+00 -4.913913e+00  1.875848e+01  # K K+
     70      70    1   1.000000  5.182135e+00  5.911745e+00 -3.418098e+00  # K K+
     71      71    1   1.000000 -2.965887e+00 -5.249834e+00 -1.051638e+01  # K K+
     72      72    1   1.000000 -7.578307e+00  1.551486e+00 -7.946028e+00  # K K+
     73      73    1   1.000000 -2.738338e+00 -7.593455e+00 -2.298650e+01  # K K+
     74      74    1   1.000000 -1.440426e+00 -7.571016e+00 -4.185365e+00  # K K+
     75      75    1   1.000000  7.554954e+00  3.660615e+00  2.589526e+01  # K K+
     76      76    1   1.000000 -1.735002e+00 -3.064172e+00 -2.528190e+01  # K K+
     77      77    1   1.000000  3.354696e+00  5.450957e+00  2.817747e+01  # K K+
     78      78    1   1.000000 -3.197362e+00 -5.152474e+00  2.461787e+01  # K K+
     79      79    1   1.000000 -1.432357e+00 -7.582944e+00 -2.753902e+01  # K K+
     80      80    1   1.000000 -2.519731e+00 -3.587555e+00  1.691539e+01  # K K+
     81      81    1   1.000000 -1.162989e+00  7.515859e+00  1.142224e+00  # K K+
     82      82    1   1.000000 -7.675350e-01 -1.207284e+00 -6.700172e+00  # K K+
     83      83    1   1.000000 -5.236069e+00  6.484986e+00 -6.975275e+00  # K K+
     84      84    1   1.000000 -5.142629e+00 -7.570959e+00 -2.541130e+01  # K K+
     85      85    1   1.000000 -8.433480e-01 -2.983610e-01  1.651043e+01  # K K+
     86      86    1   1.000000 -3.421775e+00  5.797454e+00 -1.356733e+01  # K K+
     87      87    1   1.000000 -8.200370e-01  7.547335e+00  2.763592e+01  # K K+
     88      88    1   1.000000  2.389578e+00  5.669117e+00  2.073408e+01  # K K+
     89      89    1   1.000000 -1.603727e+00  5.423439e+00 -1.512480e-01  # K K+
     90      90    1   1.000000 -3.852749e+00  5.681406e+00 -1.831419e+01  # K K+
     91      91    1   1.000000  2.171088e+00 -5.382734e+00 -2.570434e+01  # K K+
     92      92    1   1.000000 -6.085920e-01 -1.116894e+00 -2.637131e+01  # K K+
     93      93    1   1.000000  7.502090e+00  5.182298e+00 -2.491570e+01  # K K+
     94      94    1   1.000000 -4.501301e+00 -7.597149e+00  1.651704e+01  # K K+
     95      95    1   1.000000  1.331330e+00  5.740730e+00  4.939867e+00  # K K+
     96      96    1   1.000000 -4.449885e+00 -2.424867e+00 -7.126891e+00  # K K+
     97      97    1   1.000000  3.139795e+00 -2.480902e+00 -2.390009e+01  # K K+
     98      98    1   1.000000 -5.147499e+00 -5.514663e+00 -2.780378e+01  # K K+
     99      99    1   1.000000 -2.171338e+00  7.726900e-02  1.859383e+01  # K K+
    100     100    1   1.000000 -1.394201e+00  4.049136e+00 -7.484378e+00  # K K+
    101     101    2   0.423800 -3.562710e-01  7.519930e+00 -1.256928e+01  # Hw SPCE
    102     101    3  -0.847600 -1.075372e+00  7.543002e+00 -1.187476e+01  # Ow SPCE
    103     101    2   0.423800 -1.962968e+00  7.388567e+00 -1.230872e+01  # Hw SPCE
    104     102    2   0.423800  1.085044e+00 -7.506292e+00 -1.768417e+01  # Hw SPCE
    105     102    3  -0.847600  2.805680e-01 -7.619241e+00 -1.710103e+01  # Ow SPCE
    106     102    2   0.423800 -4.733000e-01 -7.071099e+00 -1.746327e+01  # Hw SPCE
    107     103    2   0.423800  7.001611e+00 -1.243209e+00  2.459040e+01  # Hw SPCE
    108     103    3  -0.847600  7.173473e+00 -2.019415e+00  2.519701e+01  # Ow SPCE
    109     103    2   0.423800  6.363842e+00 -2.188949e+00  2.575893e+01  # Hw SPCE
    110     104    2   0.423800  2.736965e+00 -4.603115e+00  6.324590e+00  # Hw SPCE
    111     104    3  -0.847600  3.337185e+00 -5.401458e+00  6.373403e+00  # Ow SPCE
    112     104    2   0.423800  4.286127e+00 -5.099864e+00  6.465877e+00  # Hw SPCE
    113     105    2   0.423800  5.310553e+00  6.499760e-01  2.608900e+01  # Hw SPCE
    114     105    3  -0.847600  5.305579e+00  1.269400e+00  2.687404e+01  # Ow SPCE
    115     105    2   0.423800  5.696020e+00  2.150183e+00  2.660612e+01  # Hw SPCE
    116     106    2   0.423800  5.118788e+00 -3.124725e+00  2.380737e+01  # Hw SPCE
    117     106    3  -0.847600  5.374509e+00 -2.443465e+00  2.312145e+01  # Ow SPCE
    118     106    2   0.423800  5.083765e+00 -2.755687e+00  2.221702e+01  # Hw SPCE
    119     107    2   0.423800 -4.479617e+00 -5.497573e+00  3.007149e+01  # Hw SPCE
    120     107    3  -0.847600 -3.792307e+00 -6.101775e+00  2.966832e+01  # Ow SPCE
    121     107    2   0.423800 -2.892256e+00 -5.879829e+00  3.004335e+01  # Hw SPCE
    122     108    2   0.423800  4.420672e+00 -7.085501e+00  8.434800e+00  # Hw SPCE
    123     108    3  -0.847600  4.682545e+00 -6.159327e+00  8.706139e+00  # Ow SPCE
    124     108    2   0.423800  4.249624e+00 -5.932642e+00  9.578603e+00  # Hw SPCE
    125     109    2   0.423800 -6.432145e+00 -7.544084e+00  3.856410e+00  # Hw SPCE
    126     109    3  -0.847600 -6.579130e+00 -6.564753e+00  3.995354e+00  # Ow SPCE
    127     109    2   0.423800 -5.951477e+00 -6.229914e+00  4.698159e+00  # Hw SPCE
    128     110    2   0.423800  3.635712e+00 -6.497320e-01  2.037759e+00  # Hw SPCE
    129     110    3  -0.847600  2.644668e+00 -7.608270e-01  2.111852e+00  # Ow SPCE
    130     110    2   0.423800  2.424593e+00 -1.731172e+00  2.211835e+00  # Hw SPCE
    131     111    2   0.423800 -3.736715e+00  4.811975e+00  1.597871e+01  # Hw SPCE
    132     111    3  -0.847600 -4.001212e+00  4.467614e+00  1.687952e+01  # Ow SPCE
    133     111    2   0.423800 -4.226427e+00  3.495658e+00  1.681185e+01  # Hw SPCE
    134     112    2   0.423800  7.597696e+00 -4.480836e+00  2.690257e+01  # Hw SPCE
    135     112    3  -0.847600  7.548735e+00 -4.384759e+00  2.590840e+01  # Ow SPCE
    136     112    2   0.423800  7.559217e+00 -5.290673e+00  2.548507e+01  # Hw SPCE
    137     113    2   0.423800 -4.297074e+00  4.684695e+00 -5.507704e+00  # Hw SPCE
    138     113    3  -0.847600 -5.170778e+00  4.814995e+00 -5.039022e+00  # Ow SPCE
    139     113    2   0.423800 -5.183302e+00  5.713927e+00 -4.601114e+00  # Hw SPCE
    140     114    2   0.423800  7.558847e+00  7.354483e+00  1.042773e+00  # Hw SPCE
    141     114    3  -0.847600  7.087579e+00  6.472694e+00  1.023996e+00  # Ow SPCE
    142     114    2   0.423800  7.562508e+00  5.828116e+00  1.623130e+00  # Hw SPCE
    143     115    2   0.423800 -7.529965e+00 -7.568688e+00  1.611036e+00  # Hw SPCE
    144     115    3  -0.847600 -7.566691e+00 -6.692863e+00  1.129806e+00  # Ow SPCE
    145     115    2   0.423800 -7.592445e+00 -5.947403e+00  1.795858e+00  # Hw SPCE
    146     116    2   0.423800  7.524494e+00  4.528644e+00 -2.858801e+01  # Hw SPCE
    147     116    3  -0.847600  7.503987e+00  3.648599e+00 -2.906246e+01  # Ow SPCE
    148     116    2   0.423800  7.561991e+00  3.800449e+00 -3.004916e+01  # Hw SPCE
    149     117    2   0.423800 -8.699200e-02 -1.123717e+00  2.158173e+00  # Hw SPCE
    150     117    3  -0.847600 -7.881830e-01 -6.236020e-01  1.650024e+00  # Ow SPCE
    151     117    2   0.423800 -1.171331e+00 -1.215142e+00  9.406030e-01  # Hw SPCE
    152     118    2   0.423800  6.077124e+00  4.708470e-01 -1.368446e+01  # Hw SPCE
    153     118    3  -0.847600  5.874396e+00 -2.651330e-01 -1.303852e+01  # Ow SPCE
    154     118    2   0.423800  5.233075e+00  6.606900e-02 -1.234642e+01  # Hw SPCE
    155     119    2   0.423800  1.904679e+00 -7.558333e+00 -1.520398e+01  # Hw SPCE
    156     119    3  -0.847600  2.811698e+00 -7.510767e+00 -1.478558e+01  # Ow SPCE
    157     119    2   0.423800  2.805469e+00 -6.830345e+00 -1.405279e+01  # Hw SPCE
    158     120    2   0.423800  2.714806e+00  5.244508e+00  6.959270e+00  # Hw SPCE
    159     120    3  -0.847600  2.981636e+00  4.677388e+00  7.738485e+00  # Ow SPCE
    160     120    2   0.423800  3.172634e+00  5.262459e+00  8.526655e+00  # Hw SPCE
    161     121    2   0.423800  7.602657e+00 -3.211100e-02  2.207139e+01  # Hw SPCE
    162     121    3  -0.847600  7.003296e+00 -8.306510e-01  2.212707e+01  # Ow SPCE
    163     121    2   0.423800  7.558213e+00 -1.660139e+00  2.219044e+01  # Hw SPCE
    164     122    2   0.423800  5.512149e+00  5.104773e+00  5.651939e+00  # Hw SPCE
    165     122    3  -0.847600  5.181810e+00  5.333507e+00  6.567666e+00  # Ow SPCE
    166     122    2   0.423800  5.558590e+00  4.685385e+00  7.229463e+00  # Hw SPCE
    167     123    2   0.423800 -3.958981e+00  3.638083e+00 -9.296944e+00  # Hw SPCE
    168     123    3  -0.847600 -3.556322e+00  4.336718e+00 -8.705526e+00  # Ow SPCE
    169     123    2   0.423800 -3.739027e+00  5.242589e+00 -9.087647e+00  # Hw SPCE
    170     124    2   0.423800 -4.942208e+00  1.741632e+00  6.173000e-02  # Hw SPCE
    171     124    3  -0.847600 -5.350369e+00  2.635479e+00 -1.238550e-01  # Ow SPCE
    172     124    2   0.423800 -5.804099e+00  2.616207e+00 -1.014786e+00  # Hw SPCE
    173     125    2   0.423800  5.714852e+00 -5.126517e+00  2.064085e+01  # Hw SPCE
    174     125    3  -0.847600  5.538751e+00 -4.223813e+00  2.024828e+01  # Ow SPCE
    175     125    2   0.423800  5.364104e+00 -4.315006e+00  1.926788e+01  # Hw SPCE
    176     126    2   0.423800 -5.184810e+00 -7.356320e+00  7.743040e-01  # Hw SPCE
    177     126    3  -0.847600 -4.711484e+00 -6.498264e+00  5.750510e-01  # Ow SPCE
    178     126    2   0.423800 -5.379495e+00 -5.802797e+00  3.103110e-01  # Hw SPCE
    179     127    2   0.423800  4.246259e+00  2.715956e+00  2.861296e+01  # Hw SPCE
    180     127    3  -0.847600  4.597665e+00  2.896430e+00  2.953162e+01  # Ow SPCE
    181     127    2   0.423800  4.465634e+00  3.862124e+00  2.975524e+01  # Hw SPCE
    182     128    2   0.423800 -7.570080e+00  6.503557e+00 -2.216756e+01  # Hw SPCE
    183     128    3  -0.847600 -7.358706e+00  7.471869e+00 -2.230058e+01  # Ow SPCE
    184     128    2   0.423800 -6.369899e+00  7.587249e+00 -2.239516e+01  # Hw SPCE
    185     129    2   0.423800  1.921149e+00  3.795520e+00 -2.612393e+01  # Hw SPCE
    186     129    3  -0.847600  1.337964e+00  4.348966e+00 -2.671857e+01  # Ow SPCE
    187     129    2   0.423800  1.228244e+00  5.260763e+00 -2.632286e+01  # Hw SPCE
    188     130    2   0.423800  7.219660e-01 -7.556524e+00 -2.682062e+00  # Hw SPCE
    189     130    3  -0.847600  8.778080e-01 -6.967071e+00 -3.474689e+00  # Ow SPCE
    190     130    2   0.423800  1.056042e+00 -7.532045e+00 -4.280317e+00  # Hw SPCE
    191     131    2   0.423800  5.126429e+00 -2.631810e-01 -1.643836e+01  # Hw SPCE
    192     131    3  -0.847600  5.011805e+00  5.970380e-01 -1.594148e+01  # Ow SPCE
    193     131    2   0.423800  4.211145e+00  5.337030e-01 -1.534572e+01  # Hw SPCE
    194     132    2   0.423800  7.569194e+00  7.520820e+00 -1.277550e+01  # Hw SPCE
    195     132    3  -0.847600  6.765603e+00  7.587302e+00 -1.336696e+01  # Ow SPCE
    196     132    2   0.423800  5.936682e+00  7.509683e+00 -1.281301e+01  # Hw SPCE
    197     133    2   0.423800 -1.628024e+00 -7.607091e+00 -7.308216e+00  # Hw SPCE
    198     133    3  -0.847600 -1.113683e+00 -7.085588e+00 -6.627416e+00  # Ow SPCE
    199     133    2   0.423800 -2.750050e-01 -7.577838e+00 -6.394372e+00  # Hw SPCE
    200     134    2   0.423800 -5.219737e+00  8.629060e-01 -8.398308e+00  # Hw SPCE
    201     134    3  -0.847600 -5.377495e+00 -9.059100e-02 -8.141487e+00  # Ow SPCE
    202     134    2   0.423800 -4.993436e+00 -6.923250e-01 -8.841782e+00  # Hw SPCE
    203     135    2   0.423800 -2.882575e+00 -4.111100e-02 -2.257573e+01  # Hw SPCE
    204     135    3  -0.847600 -3.359809e+00  1.237660e-01 -2.171256e+01  # Ow SPCE
    205     135    2   0.423800 -4.029415e+00  8.560670e-01 -2.183650e+01  # Hw SPCE
    206     136    2   0.423800 -1.244334e+00 -3.681363e+00 -2.765332e+01  # Hw SPCE
    207     136    3  -0.847600 -1.739305e+00 -4.489178e+00 -2.733326e+01  # Ow SPCE
    208     136    2   0.423800 -1.086975e+00 -5.167565e+00 -2.699524e+01  # Hw SPCE
    209     137    2   0.423800  4.179494e+00  2.479995e+00  7.106030e-01  # Hw SPCE
    210     137    3  -0.847600  3.782893e+00  1.590798e+00  9.387170e-01  # Ow SPCE
    211     137    2   0.423800  3.006788e+00  1.720431e+00  1.555852e+00  # Hw SPCE
    212     138    2   0.423800  4.116894e+00  7.534311e+00  8.963741e+00  # Hw SPCE
    213     138    3  -0.847600  4.091723e+00  7.517076e+00  7.964206e+00  # Ow SPCE
    214     138    2   0.423800  3.145328e+00  7.603879e+00  7.653075e+00  # Hw SPCE
    215     139    2   0.423800 -4.893235e+00  2.908511e+00  8.564777e+00  # Hw SPCE
    216     139    3  -0.847600 -5.037796e+00  3.115046e+00  7.597076e+00  # Ow SPCE
    217     139    2   0.423800 -5.476002e+00  2.334390e+00  7.151486e+00  # Hw SPCE
    218     140    2   0.423800  2.151942e+00  4.350438e+00 -1.426193e+00  # Hw SPCE
    219     140    3  -0.847600  2.655189e+00  3.741464e+00 -8.130920e-01  # Ow SPCE
    220     140    2   0.423800  2.013763e+00  3.128362e+00 -3.519210e-01  # Hw SPCE
    221     141    2   0.423800  7.536401e+00 -7.512900e+00  1.595982e+01  # Hw SPCE
    222     141    3  -0.847600  6.697924e+00 -6.974017e+00  1.604082e+01  # Ow SPCE
    223     141    2   0.423800  5.921620e+00 -7.586059e+00  1.619167e+01  # Hw SPCE
    224     142    2   0.423800  7.578717e+00  7.501218e+00 -2.639302e+01  # Hw SPCE
    225     142    3  -0.847600  7.511124e+00  7.188780e+00 -2.734055e+01  # Ow SPCE
    226     142    2   0.423800  6.664271e+00  7.533459e+00 -2.774556e+01  # Hw SPCE
    227     143    2   0.423800  7.601577e+00  4.104886e+00 -1.662672e+01  # Hw SPCE
    228     143    3  -0.847600  6.631555e+00  3.887724e+00 -1.651764e+01  # Ow SPCE
    229     143    2   0.423800  6.380570e+00  3.155796e+00 -1.715112e+01  # Hw SPCE
    230     144    2   0.423800  1.083635e+00  4.207768e+00  1.089642e+01  # Hw SPCE
    231     144    3  -0.847600  1.914953e+00  3.739322e+00  1.059731e+01  # Ow SPCE
    232     144    2   0.423800  2.389530e+00  3.362163e+00  1.139262e+01  # Hw SPCE
    233     145    2   0.423800  8.805870e-01  7.550474e+00  6.600474e+00  # Hw SPCE
    234     145    3  -0.847600  5.915400e-02  6.993978e+00  6.725212e+00  # Ow SPCE
    235     145    2   0.423800 -7.115420e-01  7.585654e+00  6.961741e+00  # Hw SPCE
    236     146    2   0.423800 -4.834834e+00 -7.539969e+00  2.655550e+01  # Hw SPCE
    237     146    3  -0.847600 -4.395724e+00 -6.975651e+00  2.725459e+01  # Ow SPCE
    238     146    2   0.423800 -3.757459e+00 -6.341320e+00  2.681843e+01  # Hw SPCE
    239     147    2   0.423800  4.378140e-01  1.942651e+00 -3.004055e+01  # Hw SPCE
    240     147    3  -0.847600 -5.211500e-01  1.659411e+00 -3.002780e+01  # Ow SPCE
    241     147    2   0.423800 -5.737220e-01  6.608020e-01 -3.002371e+01  # Hw SPCE
    242     148    2   0.423800 -7.555760e+00 -6.582363e+00 -9.549760e+00  # Hw SPCE
    243     148    3  -0.847600 -7.520419e+00 -7.467410e+00 -1.001392e+01  # Ow SPCE
    244     148    2   0.423800 -6.730539e+00 -7.491091e+00 -1.062672e+01  # Hw SPCE
    245     149    2   0.423800  5.126253e+00 -4.406406e+00 -2.830482e+01  # Hw SPCE
    246     149    3  -0.847600  5.068776e+00 -5.284820e+00 -2.783039e+01  # Ow SPCE
    247     149    2   0.423800  5.272677e+00 -5.153628e+00 -2.686023e+01  # Hw SPCE
    248     150    2   0.423800 -3.092639e+00  2.463021e+00  2.808926e+01  # Hw SPCE
    249     150    3  -0.847600 -2.790976e+00  1.627935e+00  2.762923e+01  # Ow SPCE
    250     150    2   0.423800 -3.575406e+00  1.024592e+00  2.748554e+01  # Hw SPCE
    251     151    2   0.423800 -6.944853e+00 -7.500795e+00 -2.781004e+00  # Hw SPCE
    252     151    3  -0.847600 -7.623933e+00 -7.510056e+00 -2.046999e+00  # Ow SPCE
    253     151    2   0.423800 -7.160403e+00 -7.596490e+00 -1.165144e+00  # Hw SPCE
    254     152    2   0.423800  7.576002e+00 -4.815532e+00 -2.776180e+01  # Hw SPCE
    255     152    3  -0.847600  7.511031e+00 -3.820707e+00 -2.783992e+01  # Ow SPCE
    256     152    2   0.423800  7.527384e+00 -3.560400e+00 -2.880531e+01  # Hw SPCE
    257     153    2   0.423800  2.089868e+00 -5.114959e+00  1.493602e+01  # Hw SPCE
    258     153    3  -0.847600  1.231266e+00 -5.407320e+00  1.451492e+01  # Ow SPCE
    259     153    2   0.423800  1.393113e+00 -5.642182e+00  1.355646e+01  # Hw SPCE
    260     154    2   0.423800  2.817373e+00  8.187400e-01 -2.580916e+01  # Hw SPCE
    261     154    3  -0.847600  2.332385e+00  2.001390e-01 -2.519100e+01  # Ow SPCE
    262     154    2   0.423800  1.721225e+00 -3.883970e-01 -2.572026e+01  # Hw SPCE
    263     155    2   0.423800 -5.979951e+00  7.541744e+00  6.941719e+00  # Hw SPCE
    264     155    3  -0.847600 -6.655687e+00  7.301667e+00  6.244765e+00  # Ow SPCE
    265     155    2   0.423800 -7.571028e+00  7.533144e+00  6.574262e+00  # Hw SPCE
    266     156    2   0.423800  1.157315e+00 -5.102459e+00 -1.223716e+01  # Hw SPCE
    267     156    3  -0.847600  5.119770e-01 -5.131680e+00 -1.300049e+01  # Ow SPCE
    268     156    2   0.423800  1.015200e+00 -5.096395e+00 -1.386393e+01  # Hw SPCE
    269     157    2   0.423800  1.246715e+00 -5.970077e+00 -9.367233e+00  # Hw SPCE
    270     157    3  -0.847600  4.018670e-01 -5.475218e+00 -9.163898e+00  # Ow SPCE
    271     157    2   0.423800 -2.665670e-01 -6.105264e+00 -8.768629e+00  # Hw SPCE
    272     158    2   0.423800  7.602594e+00  2.309923e+00  5.048750e+00  # Hw SPCE
    273     158    3  -0.847600  7.516669e+00  2.643165e+00  5.987668e+00  # Ow SPCE
    274     158    2   0.423800  7.511590e+00  3.643152e+00  5.987284e+00  # Hw SPCE
    275     159    2   0.423800 -7.554651e+00 -4.199063e+00  7.509794e+00  # Hw SPCE
    276     159    3  -0.847600 -7.445542e+00 -5.180442e+00  7.667880e+00  # Ow SPCE
    277     159    2   0.423800 -7.581303e+00 -5.378812e+00  8.638559e+00  # Hw SPCE
    278     160    2   0.423800  1.074280e+00 -1.875788e+00 -1.428871e+00  # Hw SPCE
    279     160    3  -0.847600  8.442040e-01 -2.561006e+00 -7.378280e-01  # Ow SPCE
    280     160    2   0.423800  1.000032e+00 -2.180471e+00  1.737150e-01  # Hw SPCE
    281     161    2   0.423800  3.367443e+00 -8.779870e-01 -1.932640e+01  # Hw SPCE
    282     161    3  -0.847600  4.093955e+00 -1.153621e+00 -1.869695e+01  # Ow SPCE
    283     161    2   0.423800  4.968533e+00 -1.164695e+00 -1.918171e+01  # Hw SPCE
    284     162    2   0.423800 -2.902640e+00  2.925216e+00  2.097934e+01  # Hw SPCE
    285     162    3  -0.847600 -2.779630e+00  1.940344e+00  2.110139e+01  # Ow SPCE
    286     162    2   0.423800 -2.783944e+00  1.722318e+00  2.207733e+01  # Hw SPCE
    287     163    2   0.423800 -6.570183e+00 -7.540137e+00 -2.746130e+01  # Hw SPCE
    288     163    3  -0.847600 -7.514139e+00 -7.228179e+00 -2.756914e+01  # Ow SPCE
    289     163    2   0.423800 -7.532773e+00 -6.229055e+00 -2.760660e+01  # Hw SPCE
    290     164    2   0.423800 -7.693157e+00 -2.053556e+00  1.262066e+01  # Hw SPCE
    291     164    3  -0.847600 -6.961279e+00 -1.379066e+00  1.271771e+01  # Ow SPCE
    292     164    2   0.423800 -6.417701e+00 -1.354018e+00  1.187872e+01  # Hw SPCE
    293     165    2   0.423800  7.594061e+00 -7.515030e+00  1.070150e+01  # Hw SPCE
    294     165    3  -0.847600  6.664889e+00 -7.607969e+00  1.105928e+01  # Ow SPCE
    295     165    2   0.423800  6.010056e+00 -7.547662e+00  1.030591e+01  # Hw SPCE
    296     166    2   0.423800 -1.742020e-01  1.608453e+00  2.588121e+00  # Hw SPCE
    297     166    3  -0.847600  6.638260e-01  1.180780e+00  2.926948e+00  # Ow SPCE
    298     166    2   0.423800  1.255002e+00  1.879290e+00  3.330178e+00  # Hw SPCE
    299     167    2   0.423800  7.511548e+00 -5.952096e+00 -1.908232e+01  # Hw SPCE
    300     167    3  -0.847600  7.515508e+00 -6.811516e+00 -1.857107e+01  # Ow SPCE
    301     167    2   0.423800  7.380087e+00 -7.575364e+00 -1.920210e+01  # Hw SPCE
    302     168    2   0.423800  2.457430e+00 -7.575010e+00  1.473049e+01  # Hw SPCE
    303     168    3  -0.847600  3.418159e+00 -7.711416e+00  1.497214e+01  # Ow SPCE
    304     168    2   0.423800  3.899965e+00 -6.836151e+00  1.493001e+01  # Hw SPCE
    305     169    2   0.423800  1.853869e+00 -7.532019e+00  2.083817e+01  # Hw SPCE
    306     169    3  -0.847600  1.589922e+00 -7.087214e+00  2.169402e+01  # Ow SPCE
    307     169    2   0.423800  9.481500e-01 -7.672403e+00  2.218969e+01  # Hw SPCE
    308     170    2   0.423800  7.578176e+00 -5.035130e-01 -1.123038e+01  # Hw SPCE
    309     170    3  -0.847600  7.120457e+00 -6.087200e-02 -1.045930e+01  # Ow SPCE
    310     170    2   0.423800  7.511411e+00 -3.965260e-01 -9.602273e+00  # Hw SPCE
    311     171    2   0.423800  7.562327e+00  4.621115e+00 -5.848630e-01  # Hw SPCE
    312     171    3  -0.847600  7.511016e+00  5.016839e+00 -1.501797e+00  # Ow SPCE
    313     171    2   0.423800  7.383467e+00  4.286825e+00 -2.173222e+00  # Hw SPCE
    314     172    2   0.423800 -8.100350e-01  7.511709e+00  1.808497e+01  # Hw SPCE
    315     172    3  -0.847600 -7.012170e-01  6.938611e+00  1.727274e+01  # Ow SPCE
    316     172    2   0.423800 -5.893290e-01  7.520209e+00  1.646700e+01  # Hw SPCE
    317     173    2   0.423800 -3.040929e+00 -2.262754e+00  7.121156e+00  # Hw SPCE
    318     173    3  -0.847600 -3.145002e+00 -3.047717e+00  6.510418e+00  # Ow SPCE
    319     173    2   0.423800 -2.700686e+00 -3.846635e+00  6.915773e+00  # Hw SPCE
    320     174    2   0.423800 -2.374370e+00 -8.680650e-01 -1.617383e+01  # Hw SPCE
    321     174    3  -0.847600 -1.401234e+00 -8.137850e-01 -1.639757e+01  # Ow SPCE
    322     174    2   0.423800 -1.280353e+00 -2.738530e-01 -1.723055e+01  # Hw SPCE
    323     175    2   0.423800 -6.498000e-03 -2.380123e+00 -4.629605e+00  # Hw SPCE
    324     175    3  -0.847600  3.497860e-01 -1.914169e+00 -3.819698e+00  # Ow SPCE
    325     175    2   0.423800 -3.733580e-01 -1.358163e+00 -3.409917e+00  # Hw SPCE
    326     176    2   0.423800 -3.695822e+00  2.048582e+00  1.877866e+01  # Hw SPCE
    327     176    3  -0.847600 -4.577070e+00  2.155116e+00  1.923915e+01  # Ow SPCE
    328     176    2   0.423800 -5.316366e+00  2.018637e+00  1.857975e+01  # Hw SPCE
    329     177    2   0.423800 -7.608494e+00 -4.428940e+00  2.894543e+01  # Hw SPCE
    330     177    3  -0.847600 -6.988192e+00 -4.170374e+00  2.968595e+01  # Ow SPCE
    331     177    2   0.423800 -7.303180e+00 -3.317362e+00  3.010206e+01  # Hw SPCE
    332     178    2   0.423800 -2.232053e+00 -7.589556e+00  2.834531e+01  # Hw SPCE
    333     178    3  -0.847600 -1.431797e+00 -7.674870e+00  2.775175e+01  # Ow SPCE
    334     178    2   0.423800 -1.341291e+00 -6.850036e+00  2.719367e+01  # Hw SPCE
    335     179    2   0.423800 -3.292631e+00 -2.543131e+00 -2.851842e+01  # Hw SPCE
    336     179    3  -0.847600 -4.205877e+00 -2.437185e+00 -2.891181e+01  # Ow SPCE
    337     179    2   0.423800 -4.803959e+00 -3.159830e+00 -2.856528e+01  # Hw SPCE
    338     180    2   0.423800  3.791929e+00  6.463862e+00 -1.805953e+01  # Hw SPCE
    339     180    3  -0.847600  2.865817e+00  6.709183e+00 -1.777294e+01  # Ow SPCE
    340     180    2   0.423800  2.890928e+00  7.571168e+00 -1.726663e+01  # Hw SPCE
    341     181    2   0.423800  2.676688e+00  3.849200e-01  2.761842e+01  # Hw SPCE
    342     181    3  -0.847600  2.722032e+00 -5.188170e-01  2.719274e+01  # Ow SPCE
    343     181    2   0.423800  1.813081e+00 -7.802920e-01  2.686802e+01  # Hw SPCE
    344     182    2   0.423800  7.616499e+00 -7.640373e+00 -1.107746e+00  # Hw SPCE
    345     182    3  -0.847600  7.514892e+00 -7.178560e+00 -2.266080e-01  # Ow SPCE
    346     182    2   0.423800  7.551764e+00 -6.188583e+00 -3.629380e-01  # Hw SPCE
    347     183    2   0.423800 -4.164080e-01 -7.555317e+00  3.005621e+01  # Hw SPCE
    348     183    3  -0.847600 -1.001780e-01 -6.610798e+00  3.014499e+01  # Ow SPCE
    349     183    2   0.423800 -4.833290e-01 -6.059930e+00  2.940355e+01  # Hw SPCE
    350     184    2   0.423800 -7.518100e+00  7.561645e+00 -1.728772e+01  # Hw SPCE
    351     184    3  -0.847600 -7.177929e+00  7.511070e+00 -1.634872e+01  # Ow SPCE